 BEGIN_INFO
   #
   # this is a Band-XCRYSDEN-Structure-File
   # aimed at Visualization of Fermi Surface
   #
   # Case:   pb_fs.bxsf
   #
 Fermi Energy:         11.3103
 END_INFO
 BEGIN_BLOCK_BANDGRID_3D
 band_energies
 BEGIN_BANDGRID_3D
    3
   17   17   17
  0.000000  0.000000  0.000000
 -1.000000 -1.000000  1.000000
  1.000000  1.000000  1.000000
 -1.000000  1.000000 -1.000000
BAND:   7
   18.7413   17.7789   15.9214   13.9421   12.0347   10.2736
    8.7269    7.5322    7.0303    7.5322    8.7269   10.2736
   12.0347   13.9421   15.9214   17.7789   18.7413   17.7789
   18.0634   16.5352   14.6084   12.6900   10.8887    9.2724
    7.9461    7.1692    7.3413    8.3471    9.7878   11.4721
   13.3134   15.2239   16.9258   17.7789   15.9214   16.5352
   16.7234   15.2096   13.3733   11.5838    9.9401    8.5356
    7.5637    7.4061    8.1644    9.4570   11.0196   12.7043
   14.2446   15.2239   15.9214   13.9421   14.6084   15.2096
   15.1996   13.8673   12.2303   10.6414    9.2283    8.1523
    7.7305    8.2048    9.2975   10.6504   11.9031   12.7043
   13.3134   13.9421   12.0347   12.6900   13.3733   13.8673
   13.5551   12.4347   11.1171    9.8493    8.8077    8.2600
    8.4836    9.3127   10.1824   10.6504   11.0196   11.4721
   12.0347   10.2736   10.8887   11.5838   12.2303   12.4347
   11.8303   10.8831    9.9393    9.1633    8.7629    8.9617
    9.4039    9.3127    9.2975    9.4570    9.7878   10.2736
    8.7269    9.2724    9.9401   10.6414   11.1171   10.8831
   10.1357    9.3613    8.7937    8.6294    8.9692    8.9617
    8.4836    8.2048    8.1644    8.3471    8.7269    7.5322
    7.9461    8.5356    9.2283    9.8493    9.9393    9.3613
    8.6726    8.2241    8.2273    8.6294    8.7629    8.2600
    7.7305    7.4061    7.3413    7.5322    7.0303    7.1692
    7.5637    8.1523    8.8077    9.1633    8.7937    8.2241
    7.9739    8.2241    8.7937    9.1633    8.8077    8.1523
    7.5637    7.1692    7.0303    7.5322    7.3413    7.4061
    7.7305    8.2600    8.7629    8.6294    8.2273    8.2241
    8.6726    9.3613    9.9393    9.8493    9.2283    8.5356
    7.9461    7.5322    8.7269    8.3471    8.1644    8.2048
    8.4836    8.9617    8.9692    8.6294    8.7937    9.3613
   10.1357   10.8831   11.1171   10.6414    9.9401    9.2724
    8.7269   10.2736    9.7878    9.4570    9.2975    9.3127
    9.4039    8.9617    8.7629    9.1633    9.9393   10.8831
   11.8303   12.4347   12.2303   11.5838   10.8887   10.2736
   12.0347   11.4721   11.0196   10.6504   10.1824    9.3127
    8.4836    8.2600    8.8077    9.8493   11.1171   12.4347
   13.5551   13.8673   13.3733   12.6900   12.0347   13.9421
   13.3134   12.7043   11.9031   10.6504    9.2975    8.2048
    7.7305    8.1523    9.2283   10.6414   12.2303   13.8673
   15.1996   15.2096   14.6084   13.9421   15.9214   15.2239
   14.2446   12.7043   11.0196    9.4570    8.1644    7.4061
    7.5637    8.5356    9.9401   11.5838   13.3733   15.2096
   16.7234   16.5352   15.9214   17.7789   16.9258   15.2239
   13.3134   11.4721    9.7878    8.3471    7.3413    7.1692
    7.9461    9.2724   10.8887   12.6900   14.6084   16.5352
   18.0634   17.7789   18.7413   17.7789   15.9214   13.9421
   12.0347   10.2736    8.7269    7.5322    7.0303    7.5322
    8.7269   10.2736   12.0347   13.9421   15.9214   17.7789
   18.7413   17.7789   18.0634   16.5352   14.6084   12.6900
   10.8887    9.2724    7.9461    7.1692    7.3413    8.3471
    9.7878   11.4721   13.3134   15.2239   16.9258   17.7789
   18.0634   17.7789   16.9258   15.2239   13.3134   11.4721
    9.7878    8.3471    7.3413    7.1692    7.9461    9.2724
   10.8887   12.6900   14.6084   16.5352   18.0634   16.5352
   16.9258   16.5352   15.5800   13.9367   12.1341   10.4264
    8.9169    7.7532    7.2680    7.7532    8.9169   10.4264
   12.1341   13.9367   15.5800   16.5352   14.6084   15.2239
   15.5800   15.2096   14.2596   12.7507   11.1148    9.5975
    8.3483    7.6299    7.7987    8.7469   10.1000   11.6213
   13.0207   13.9367   14.6084   12.6900   13.3134   13.9367
   14.2596   13.8673   12.9432   11.6405   10.2571    9.0286
    8.1942    8.0939    8.7845    9.8931   10.9582   11.6213
   12.1341   12.6900   10.8887   11.4721   12.1341   12.7507
   12.9432   12.4347   11.5487   10.5226    9.5320    8.7900
    8.5918    9.0489    9.6570    9.8931   10.1000   10.4264
   10.8887    9.2724    9.7878   10.4264   11.1148   11.6405
   11.5487   10.8831   10.0782    9.3618    8.9101    8.9396
    9.5500    9.0489    8.7845    8.7469    8.9169    9.2724
    7.9461    8.3471    8.9169    9.5975   10.2571   10.5226
   10.0782    9.3613    8.7431    8.4407    8.6005    8.9396
    8.5918    8.0939    7.7987    7.7532    7.9461    7.1692
    7.3413    7.7532    8.3483    9.0286    9.5320    9.3618
    8.7431    8.2241    8.1009    8.4407    8.9101    8.7900
    8.1942    7.6299    7.2680    7.1692    7.3413    7.1692
    7.2680    7.6299    8.1942    8.7900    8.9101    8.4407
    8.1009    8.2241    8.7431    9.3618    9.5320    9.0286
    8.3483    7.7532    7.3413    8.3471    7.9461    7.7532
    7.7987    8.0939    8.5918    8.9396    8.6005    8.4407
    8.7431    9.3613   10.0782   10.5226   10.2571    9.5975
    8.9169    8.3471    9.7878    9.2724    8.9169    8.7469
    8.7845    9.0489    9.5500    8.9396    8.9101    9.3618
   10.0782   10.8831   11.5487   11.6405   11.1148   10.4264
    9.7878   11.4721   10.8887   10.4264   10.1000    9.8931
    9.6570    9.0489    8.5918    8.7900    9.5320   10.5226
   11.5487   12.4347   12.9432   12.7507   12.1341   11.4721
   13.3134   12.6900   12.1341   11.6213   10.9582    9.8931
    8.7845    8.0939    8.1942    9.0286   10.2571   11.6405
   12.9432   13.8673   14.2596   13.9367   13.3134   15.2239
   14.6084   13.9367   13.0207   11.6213   10.1000    8.7469
    7.7987    7.6299    8.3483    9.5975   11.1148   12.7507
   14.2596   15.2096   15.5800   15.2239   16.9258   16.5352
   15.5800   13.9367   12.1341   10.4264    8.9169    7.7532
    7.2680    7.7532    8.9169   10.4264   12.1341   13.9367
   15.5800   16.5352   16.9258   17.7789   18.0634   16.5352
   14.6084   12.6900   10.8887    9.2724    7.9461    7.1692
    7.3413    8.3471    9.7878   11.4721   13.3134   15.2239
   16.9258   17.7789   15.9214   16.5352   16.7234   15.2096
   13.3733   11.5838    9.9401    8.5356    7.5637    7.4061
    8.1644    9.4570   11.0196   12.7043   14.2446   15.2239
   15.9214   16.5352   16.9258   16.5352   15.5800   13.9367
   12.1341   10.4264    8.9169    7.7532    7.2680    7.7532
    8.9169   10.4264   12.1341   13.9367   15.5800   16.5352
   16.7234   16.5352   15.9214   15.2239   14.2446   12.7043
   11.0196    9.4570    8.1644    7.4061    7.5637    8.5356
    9.9401   11.5838   13.3733   15.2096   16.7234   15.2096
   15.5800   15.2239   14.6084   13.9367   13.0207   11.6213
   10.1000    8.7469    7.7987    7.6299    8.3483    9.5975
   11.1148   12.7507   14.2596   15.2096   13.3733   13.9367
   14.2446   13.9367   13.3733   12.7507   11.9187   10.7057
    9.4161    8.3832    7.9567    8.3832    9.4161   10.7057
   11.9187   12.7507   13.3733   11.5838   12.1341   12.7043
   13.0207   12.7507   12.2303   11.6405   10.8988    9.9470
    9.0218    8.4909    8.6591    9.3965   10.1996   10.7057
   11.1148   11.5838    9.9401   10.4264   11.0196   11.6213
   11.9187   11.6405   11.1171   10.5226    9.8922    9.3148
    8.9953    9.1506    9.4504    9.3965    9.4161    9.5975
    9.9401    8.5356    8.9169    9.4570   10.1000   10.7057
   10.8988   10.5226    9.9393    9.3618    8.9412    8.8557
    9.2029    9.1506    8.6591    8.3832    8.3483    8.5356
    7.5637    7.7532    8.1644    8.7469    9.4161    9.9470
    9.8922    9.3618    8.7937    8.4407    8.4757    8.8557
    8.9953    8.4909    7.9567    7.6299    7.5637    7.4061
    7.2680    7.4061    7.7987    8.3832    9.0218    9.3148
    8.9412    8.4407    8.2273    8.4407    8.9412    9.3148
    9.0218    8.3832    7.7987    7.4061    8.1644    7.7532
    7.5637    7.6299    7.9567    8.4909    8.9953    8.8557
    8.4757    8.4407    8.7937    9.3618    9.8922    9.9470
    9.4161    8.7469    8.1644    9.4570    8.9169    8.5356
    8.3483    8.3832    8.6591    9.1506    9.2029    8.8557
    8.9412    9.3618    9.9393   10.5226   10.8988   10.7057
   10.1000    9.4570   11.0196   10.4264    9.9401    9.5975
    9.4161    9.3965    9.4504    9.1506    8.9953    9.3148
    9.8922   10.5226   11.1171   11.6405   11.9187   11.6213
   11.0196   12.7043   12.1341   11.5838   11.1148   10.7057
   10.1996    9.3965    8.6591    8.4909    9.0218    9.9470
   10.8988   11.6405   12.2303   12.7507   13.0207   12.7043
   14.2446   13.9367   13.3733   12.7507   11.9187   10.7057
    9.4161    8.3832    7.9567    8.3832    9.4161   10.7057
   11.9187   12.7507   13.3733   13.9367   14.2446   15.2239
   15.5800   15.2096   14.2596   12.7507   11.1148    9.5975
    8.3483    7.6299    7.7987    8.7469   10.1000   11.6213
   13.0207   13.9367   14.6084   15.2239   15.9214   16.5352
   16.7234   15.2096   13.3733   11.5838    9.9401    8.5356
    7.5637    7.4061    8.1644    9.4570   11.0196   12.7043
   14.2446   15.2239   15.9214   13.9421   14.6084   15.2096
   15.1996   13.8673   12.2303   10.6414    9.2283    8.1523
    7.7305    8.2048    9.2975   10.6504   11.9031   12.7043
   13.3134   13.9421   14.6084   15.2239   15.5800   15.2096
   14.2596   12.7507   11.1148    9.5975    8.3483    7.6299
    7.7987    8.7469   10.1000   11.6213   13.0207   13.9367
   14.6084   15.2096   15.5800   15.2239   14.6084   13.9367
   13.0207   11.6213   10.1000    8.7469    7.7987    7.6299
    8.3483    9.5975   11.1148   12.7507   14.2596   15.2096
   15.1996   15.2096   14.6084   13.9421   13.3134   12.7043
   11.9031   10.6504    9.2975    8.2048    7.7305    8.1523
    9.2283   10.6414   12.2303   13.8673   15.1996   13.8673
   14.2596   13.9367   13.3134   12.6900   12.1341   11.6213
   10.9582    9.8931    8.7845    8.0939    8.1942    9.0286
   10.2571   11.6405   12.9432   13.8673   12.2303   12.7507
   13.0207   12.7043   12.1341   11.5838   11.1148   10.7057
   10.1996    9.3965    8.6591    8.4909    9.0218    9.9470
   10.8988   11.6405   12.2303   10.6414   11.1148   11.6213
   11.9031   11.6213   11.1148   10.6414   10.2571    9.9470
    9.6260    9.2247    9.0091    9.2247    9.6260    9.9470
   10.2571   10.6414    9.2283    9.5975   10.1000   10.6504
   10.9582   10.7057   10.2571    9.8493    9.5320    9.3148
    9.2352    9.4034    9.6160    9.2247    9.0218    9.0286
    9.2283    8.1523    8.3483    8.7469    9.2975    9.8931
   10.1996    9.9470    9.5320    9.1633    8.9101    8.8557
    9.0804    9.4034    9.0091    8.4909    8.1942    8.1523
    7.7305    7.6299    7.7987    8.2048    8.7845    9.3965
    9.6260    9.3148    8.9101    8.6294    8.6005    8.8557
    9.2352    9.2247    8.6591    8.0939    7.7305    8.2048
    7.7987    7.6299    7.7305    8.0939    8.6591    9.2247
    9.2352    8.8557    8.6005    8.6294    8.9101    9.3148
    9.6260    9.3965    8.7845    8.2048    9.2975    8.7469
    8.3483    8.1523    8.1942    8.4909    9.0091    9.4034
    9.0804    8.8557    8.9101    9.1633    9.5320    9.9470
   10.1996    9.8931    9.2975   10.6504   10.1000    9.5975
    9.2283    9.0286    9.0218    9.2247    9.6160    9.4034
    9.2352    9.3148    9.5320    9.8493   10.2571   10.7057
   10.9582   10.6504   11.9031   11.6213   11.1148   10.6414
   10.2571    9.9470    9.6260    9.2247    9.0091    9.2247
    9.6260    9.9470   10.2571   10.6414   11.1148   11.6213
   11.9031   12.7043   13.0207   12.7507   12.2303   11.6405
   10.8988    9.9470    9.0218    8.4909    8.6591    9.3965
   10.1996   10.7057   11.1148   11.5838   12.1341   12.7043
   13.3134   13.9367   14.2596   13.8673   12.9432   11.6405
   10.2571    9.0286    8.1942    8.0939    8.7845    9.8931
   10.9582   11.6213   12.1341   12.6900   13.3134   13.9421
   14.6084   15.2096   15.1996   13.8673   12.2303   10.6414
    9.2283    8.1523    7.7305    8.2048    9.2975   10.6504
   11.9031   12.7043   13.3134   13.9421   12.0347   12.6900
   13.3733   13.8673   13.5551   12.4347   11.1171    9.8493
    8.8077    8.2600    8.4836    9.3127   10.1824   10.6504
   11.0196   11.4721   12.0347   12.6900   13.3134   13.9367
   14.2596   13.8673   12.9432   11.6405   10.2571    9.0286
    8.1942    8.0939    8.7845    9.8931   10.9582   11.6213
   12.1341   12.6900   13.3733   13.9367   14.2446   13.9367
   13.3733   12.7507   11.9187   10.7057    9.4161    8.3832
    7.9567    8.3832    9.4161   10.7057   11.9187   12.7507
   13.3733   13.8673   14.2596   13.9367   13.3134   12.6900
   12.1341   11.6213   10.9582    9.8931    8.7845    8.0939
    8.1942    9.0286   10.2571   11.6405   12.9432   13.8673
   13.5551   13.8673   13.3733   12.6900   12.0347   11.4721
   11.0196   10.6504   10.1824    9.3127    8.4836    8.2600
    8.8077    9.8493   11.1171   12.4347   13.5551   12.4347
   12.9432   12.7507   12.1341   11.4721   10.8887   10.4264
   10.1000    9.8931    9.6570    9.0489    8.5918    8.7900
    9.5320   10.5226   11.5487   12.4347   11.1171   11.6405
   11.9187   11.6213   11.0196   10.4264    9.9401    9.5975
    9.4161    9.3965    9.4504    9.1506    8.9953    9.3148
    9.8922   10.5226   11.1171    9.8493   10.2571   10.7057
   10.9582   10.6504   10.1000    9.5975    9.2283    9.0286
    9.0218    9.2247    9.6160    9.4034    9.2352    9.3148
    9.5320    9.8493    8.8077    9.0286    9.4161    9.8931
   10.1824    9.8931    9.4161    9.0286    8.8077    8.7900
    8.9953    9.4034    9.8867    9.4034    8.9953    8.7900
    8.8077    8.2600    8.1942    8.3832    8.7845    9.3127
    9.6570    9.3965    9.0218    8.7900    8.7629    8.9396
    9.2029    9.4034    9.6160    9.1506    8.5918    8.2600
    8.4836    8.0939    7.9567    8.0939    8.4836    9.0489
    9.4504    9.2247    8.9953    8.9396    8.9692    8.9396
    8.9953    9.2247    9.4504    9.0489    8.4836    9.3127
    8.7845    8.3832    8.1942    8.2600    8.5918    9.1506
    9.6160    9.4034    9.2029    8.9396    8.7629    8.7900
    9.0218    9.3965    9.6570    9.3127   10.1824    9.8931
    9.4161    9.0286    8.8077    8.7900    8.9953    9.4034
    9.8867    9.4034    8.9953    8.7900    8.8077    9.0286
    9.4161    9.8931   10.1824   10.6504   10.9582   10.7057
   10.2571    9.8493    9.5320    9.3148    9.2352    9.4034
    9.6160    9.2247    9.0218    9.0286    9.2283    9.5975
   10.1000   10.6504   11.0196   11.6213   11.9187   11.6405
   11.1171   10.5226    9.8922    9.3148    8.9953    9.1506
    9.4504    9.3965    9.4161    9.5975    9.9401   10.4264
   11.0196   11.4721   12.1341   12.7507   12.9432   12.4347
   11.5487   10.5226    9.5320    8.7900    8.5918    9.0489
    9.6570    9.8931   10.1000   10.4264   10.8887   11.4721
   12.0347   12.6900   13.3733   13.8673   13.5551   12.4347
   11.1171    9.8493    8.8077    8.2600    8.4836    9.3127
   10.1824   10.6504   11.0196   11.4721   12.0347   10.2736
   10.8887   11.5838   12.2303   12.4347   11.8303   10.8831
    9.9393    9.1633    8.7629    8.9617    9.4039    9.3127
    9.2975    9.4570    9.7878   10.2736   10.8887   11.4721
   12.1341   12.7507   12.9432   12.4347   11.5487   10.5226
    9.5320    8.7900    8.5918    9.0489    9.6570    9.8931
   10.1000   10.4264   10.8887   11.5838   12.1341   12.7043
   13.0207   12.7507   12.2303   11.6405   10.8988    9.9470
    9.0218    8.4909    8.6591    9.3965   10.1996   10.7057
   11.1148   11.5838   12.2303   12.7507   13.0207   12.7043
   12.1341   11.5838   11.1148   10.7057   10.1996    9.3965
    8.6591    8.4909    9.0218    9.9470   10.8988   11.6405
   12.2303   12.4347   12.9432   12.7507   12.1341   11.4721
   10.8887   10.4264   10.1000    9.8931    9.6570    9.0489
    8.5918    8.7900    9.5320   10.5226   11.5487   12.4347
   11.8303   12.4347   12.2303   11.5838   10.8887   10.2736
    9.7878    9.4570    9.2975    9.3127    9.4039    8.9617
    8.7629    9.1633    9.9393   10.8831   11.8303   10.8831
   11.5487   11.6405   11.1148   10.4264    9.7878    9.2724
    8.9169    8.7469    8.7845    9.0489    9.5500    8.9396
    8.9101    9.3618   10.0782   10.8831    9.9393   10.5226
   10.8988   10.7057   10.1000    9.4570    8.9169    8.5356
    8.3483    8.3832    8.6591    9.1506    9.2029    8.8557
    8.9412    9.3618    9.9393    9.1633    9.5320    9.9470
   10.1996    9.8931    9.2975    8.7469    8.3483    8.1523
    8.1942    8.4909    9.0091    9.4034    9.0804    8.8557
    8.9101    9.1633    8.7629    8.7900    9.0218    9.3965
    9.6570    9.3127    8.7845    8.3832    8.1942    8.2600
    8.5918    9.1506    9.6160    9.4034    9.2029    8.9396
    8.7629    8.9617    8.5918    8.4909    8.6591    9.0489
    9.4039    9.0489    8.6591    8.4909    8.5918    8.9617
    9.5500    9.1506    9.0091    9.1506    9.5500    8.9617
    9.4039    9.0489    8.6591    8.4909    8.5918    8.9617
    9.5500    9.1506    9.0091    9.1506    9.5500    8.9617
    8.5918    8.4909    8.6591    9.0489    9.4039    9.3127
    9.6570    9.3965    9.0218    8.7900    8.7629    8.9396
    9.2029    9.4034    9.6160    9.1506    8.5918    8.2600
    8.1942    8.3832    8.7845    9.3127    9.2975    9.8931
   10.1996    9.9470    9.5320    9.1633    8.9101    8.8557
    9.0804    9.4034    9.0091    8.4909    8.1942    8.1523
    8.3483    8.7469    9.2975    9.4570   10.1000   10.7057
   10.8988   10.5226    9.9393    9.3618    8.9412    8.8557
    9.2029    9.1506    8.6591    8.3832    8.3483    8.5356
    8.9169    9.4570    9.7878   10.4264   11.1148   11.6405
   11.5487   10.8831   10.0782    9.3618    8.9101    8.9396
    9.5500    9.0489    8.7845    8.7469    8.9169    9.2724
    9.7878   10.2736   10.8887   11.5838   12.2303   12.4347
   11.8303   10.8831    9.9393    9.1633    8.7629    8.9617
    9.4039    9.3127    9.2975    9.4570    9.7878   10.2736
    8.7269    9.2724    9.9401   10.6414   11.1171   10.8831
   10.1357    9.3613    8.7937    8.6294    8.9692    8.9617
    8.4836    8.2048    8.1644    8.3471    8.7269    9.2724
    9.7878   10.4264   11.1148   11.6405   11.5487   10.8831
   10.0782    9.3618    8.9101    8.9396    9.5500    9.0489
    8.7845    8.7469    8.9169    9.2724    9.9401   10.4264
   11.0196   11.6213   11.9187   11.6405   11.1171   10.5226
    9.8922    9.3148    8.9953    9.1506    9.4504    9.3965
    9.4161    9.5975    9.9401   10.6414   11.1148   11.6213
   11.9031   11.6213   11.1148   10.6414   10.2571    9.9470
    9.6260    9.2247    9.0091    9.2247    9.6260    9.9470
   10.2571   10.6414   11.1171   11.6405   11.9187   11.6213
   11.0196   10.4264    9.9401    9.5975    9.4161    9.3965
    9.4504    9.1506    8.9953    9.3148    9.8922   10.5226
   11.1171   10.8831   11.5487   11.6405   11.1148   10.4264
    9.7878    9.2724    8.9169    8.7469    8.7845    9.0489
    9.5500    8.9396    8.9101    9.3618   10.0782   10.8831
   10.1357   10.8831   11.1171   10.6414    9.9401    9.2724
    8.7269    8.3471    8.1644    8.2048    8.4836    8.9617
    8.9692    8.6294    8.7937    9.3613   10.1357    9.3613
   10.0782   10.5226   10.2571    9.5975    8.9169    8.3471
    7.9461    7.7532    7.7987    8.0939    8.5918    8.9396
    8.6005    8.4407    8.7431    9.3613    8.7937    9.3618
    9.8922    9.9470    9.4161    8.7469    8.1644    7.7532
    7.5637    7.6299    7.9567    8.4909    8.9953    8.8557
    8.4757    8.4407    8.7937    8.6294    8.9101    9.3148
    9.6260    9.3965    8.7845    8.2048    7.7987    7.6299
    7.7305    8.0939    8.6591    9.2247    9.2352    8.8557
    8.6005    8.6294    8.9692    8.9396    8.9953    9.2247
    9.4504    9.0489    8.4836    8.0939    7.9567    8.0939
    8.4836    9.0489    9.4504    9.2247    8.9953    8.9396
    8.9692    8.9617    9.5500    9.1506    9.0091    9.1506
    9.5500    8.9617    8.5918    8.4909    8.6591    9.0489
    9.4039    9.0489    8.6591    8.4909    8.5918    8.9617
    8.4836    9.0489    9.4504    9.2247    8.9953    8.9396
    8.9692    8.9396    8.9953    9.2247    9.4504    9.0489
    8.4836    8.0939    7.9567    8.0939    8.4836    8.2048
    8.7845    9.3965    9.6260    9.3148    8.9101    8.6294
    8.6005    8.8557    9.2352    9.2247    8.6591    8.0939
    7.7305    7.6299    7.7987    8.2048    8.1644    8.7469
    9.4161    9.9470    9.8922    9.3618    8.7937    8.4407
    8.4757    8.8557    8.9953    8.4909    7.9567    7.6299
    7.5637    7.7532    8.1644    8.3471    8.9169    9.5975
   10.2571   10.5226   10.0782    9.3613    8.7431    8.4407
    8.6005    8.9396    8.5918    8.0939    7.7987    7.7532
    7.9461    8.3471    8.7269    9.2724    9.9401   10.6414
   11.1171   10.8831   10.1357    9.3613    8.7937    8.6294
    8.9692    8.9617    8.4836    8.2048    8.1644    8.3471
    8.7269    7.5322    7.9461    8.5356    9.2283    9.8493
    9.9393    9.3613    8.6726    8.2241    8.2273    8.6294
    8.7629    8.2600    7.7305    7.4061    7.3413    7.5322
    7.9461    8.3471    8.9169    9.5975   10.2571   10.5226
   10.0782    9.3613    8.7431    8.4407    8.6005    8.9396
    8.5918    8.0939    7.7987    7.7532    7.9461    8.5356
    8.9169    9.4570   10.1000   10.7057   10.8988   10.5226
    9.9393    9.3618    8.9412    8.8557    9.2029    9.1506
    8.6591    8.3832    8.3483    8.5356    9.2283    9.5975
   10.1000   10.6504   10.9582   10.7057   10.2571    9.8493
    9.5320    9.3148    9.2352    9.4034    9.6160    9.2247
    9.0218    9.0286    9.2283    9.8493   10.2571   10.7057
   10.9582   10.6504   10.1000    9.5975    9.2283    9.0286
    9.0218    9.2247    9.6160    9.4034    9.2352    9.3148
    9.5320    9.8493    9.9393   10.5226   10.8988   10.7057
   10.1000    9.4570    8.9169    8.5356    8.3483    8.3832
    8.6591    9.1506    9.2029    8.8557    8.9412    9.3618
    9.9393    9.3613   10.0782   10.5226   10.2571    9.5975
    8.9169    8.3471    7.9461    7.7532    7.7987    8.0939
    8.5918    8.9396    8.6005    8.4407    8.7431    9.3613
    8.6726    9.3613    9.9393    9.8493    9.2283    8.5356
    7.9461    7.5322    7.3413    7.4061    7.7305    8.2600
    8.7629    8.6294    8.2273    8.2241    8.6726    8.2241
    8.7431    9.3618    9.5320    9.0286    8.3483    7.7532
    7.3413    7.1692    7.2680    7.6299    8.1942    8.7900
    8.9101    8.4407    8.1009    8.2241    8.2273    8.4407
    8.9412    9.3148    9.0218    8.3832    7.7987    7.4061
    7.2680    7.4061    7.7987    8.3832    9.0218    9.3148
    8.9412    8.4407    8.2273    8.6294    8.6005    8.8557
    9.2352    9.2247    8.6591    8.0939    7.7305    7.6299
    7.7987    8.2048    8.7845    9.3965    9.6260    9.3148
    8.9101    8.6294    8.7629    8.9396    9.2029    9.4034
    9.6160    9.1506    8.5918    8.2600    8.1942    8.3832
    8.7845    9.3127    9.6570    9.3965    9.0218    8.7900
    8.7629    8.2600    8.5918    9.1506    9.6160    9.4034
    9.2029    8.9396    8.7629    8.7900    9.0218    9.3965
    9.6570    9.3127    8.7845    8.3832    8.1942    8.2600
    7.7305    8.0939    8.6591    9.2247    9.2352    8.8557
    8.6005    8.6294    8.9101    9.3148    9.6260    9.3965
    8.7845    8.2048    7.7987    7.6299    7.7305    7.4061
    7.7987    8.3832    9.0218    9.3148    8.9412    8.4407
    8.2273    8.4407    8.9412    9.3148    9.0218    8.3832
    7.7987    7.4061    7.2680    7.4061    7.3413    7.7532
    8.3483    9.0286    9.5320    9.3618    8.7431    8.2241
    8.1009    8.4407    8.9101    8.7900    8.1942    7.6299
    7.2680    7.1692    7.3413    7.5322    7.9461    8.5356
    9.2283    9.8493    9.9393    9.3613    8.6726    8.2241
    8.2273    8.6294    8.7629    8.2600    7.7305    7.4061
    7.3413    7.5322    7.0303    7.1692    7.5637    8.1523
    8.8077    9.1633    8.7937    8.2241    7.9739    8.2241
    8.7937    9.1633    8.8077    8.1523    7.5637    7.1692
    7.0303    7.1692    7.3413    7.7532    8.3483    9.0286
    9.5320    9.3618    8.7431    8.2241    8.1009    8.4407
    8.9101    8.7900    8.1942    7.6299    7.2680    7.1692
    7.5637    7.7532    8.1644    8.7469    9.4161    9.9470
    9.8922    9.3618    8.7937    8.4407    8.4757    8.8557
    8.9953    8.4909    7.9567    7.6299    7.5637    8.1523
    8.3483    8.7469    9.2975    9.8931   10.1996    9.9470
    9.5320    9.1633    8.9101    8.8557    9.0804    9.4034
    9.0091    8.4909    8.1942    8.1523    8.8077    9.0286
    9.4161    9.8931   10.1824    9.8931    9.4161    9.0286
    8.8077    8.7900    8.9953    9.4034    9.8867    9.4034
    8.9953    8.7900    8.8077    9.1633    9.5320    9.9470
   10.1996    9.8931    9.2975    8.7469    8.3483    8.1523
    8.1942    8.4909    9.0091    9.4034    9.0804    8.8557
    8.9101    9.1633    8.7937    9.3618    9.8922    9.9470
    9.4161    8.7469    8.1644    7.7532    7.5637    7.6299
    7.9567    8.4909    8.9953    8.8557    8.4757    8.4407
    8.7937    8.2241    8.7431    9.3618    9.5320    9.0286
    8.3483    7.7532    7.3413    7.1692    7.2680    7.6299
    8.1942    8.7900    8.9101    8.4407    8.1009    8.2241
    7.9739    8.2241    8.7937    9.1633    8.8077    8.1523
    7.5637    7.1692    7.0303    7.1692    7.5637    8.1523
    8.8077    9.1633    8.7937    8.2241    7.9739    8.2241
    8.1009    8.4407    8.9101    8.7900    8.1942    7.6299
    7.2680    7.1692    7.3413    7.7532    8.3483    9.0286
    9.5320    9.3618    8.7431    8.2241    8.7937    8.4407
    8.4757    8.8557    8.9953    8.4909    7.9567    7.6299
    7.5637    7.7532    8.1644    8.7469    9.4161    9.9470
    9.8922    9.3618    8.7937    9.1633    8.9101    8.8557
    9.0804    9.4034    9.0091    8.4909    8.1942    8.1523
    8.3483    8.7469    9.2975    9.8931   10.1996    9.9470
    9.5320    9.1633    8.8077    8.7900    8.9953    9.4034
    9.8867    9.4034    8.9953    8.7900    8.8077    9.0286
    9.4161    9.8931   10.1824    9.8931    9.4161    9.0286
    8.8077    8.1523    8.1942    8.4909    9.0091    9.4034
    9.0804    8.8557    8.9101    9.1633    9.5320    9.9470
   10.1996    9.8931    9.2975    8.7469    8.3483    8.1523
    7.5637    7.6299    7.9567    8.4909    8.9953    8.8557
    8.4757    8.4407    8.7937    9.3618    9.8922    9.9470
    9.4161    8.7469    8.1644    7.7532    7.5637    7.1692
    7.2680    7.6299    8.1942    8.7900    8.9101    8.4407
    8.1009    8.2241    8.7431    9.3618    9.5320    9.0286
    8.3483    7.7532    7.3413    7.1692    7.0303    7.1692
    7.5637    8.1523    8.8077    9.1633    8.7937    8.2241
    7.9739    8.2241    8.7937    9.1633    8.8077    8.1523
    7.5637    7.1692    7.0303    7.5322    7.3413    7.4061
    7.7305    8.2600    8.7629    8.6294    8.2273    8.2241
    8.6726    9.3613    9.9393    9.8493    9.2283    8.5356
    7.9461    7.5322    7.3413    7.1692    7.2680    7.6299
    8.1942    8.7900    8.9101    8.4407    8.1009    8.2241
    8.7431    9.3618    9.5320    9.0286    8.3483    7.7532
    7.3413    7.4061    7.2680    7.4061    7.7987    8.3832
    9.0218    9.3148    8.9412    8.4407    8.2273    8.4407
    8.9412    9.3148    9.0218    8.3832    7.7987    7.4061
    7.7305    7.6299    7.7987    8.2048    8.7845    9.3965
    9.6260    9.3148    8.9101    8.6294    8.6005    8.8557
    9.2352    9.2247    8.6591    8.0939    7.7305    8.2600
    8.1942    8.3832    8.7845    9.3127    9.6570    9.3965
    9.0218    8.7900    8.7629    8.9396    9.2029    9.4034
    9.6160    9.1506    8.5918    8.2600    8.7629    8.7900
    9.0218    9.3965    9.6570    9.3127    8.7845    8.3832
    8.1942    8.2600    8.5918    9.1506    9.6160    9.4034
    9.2029    8.9396    8.7629    8.6294    8.9101    9.3148
    9.6260    9.3965    8.7845    8.2048    7.7987    7.6299
    7.7305    8.0939    8.6591    9.2247    9.2352    8.8557
    8.6005    8.6294    8.2273    8.4407    8.9412    9.3148
    9.0218    8.3832    7.7987    7.4061    7.2680    7.4061
    7.7987    8.3832    9.0218    9.3148    8.9412    8.4407
    8.2273    8.2241    8.1009    8.4407    8.9101    8.7900
    8.1942    7.6299    7.2680    7.1692    7.3413    7.7532
    8.3483    9.0286    9.5320    9.3618    8.7431    8.2241
    8.6726    8.2241    8.2273    8.6294    8.7629    8.2600
    7.7305    7.4061    7.3413    7.5322    7.9461    8.5356
    9.2283    9.8493    9.9393    9.3613    8.6726    9.3613
    8.7431    8.4407    8.6005    8.9396    8.5918    8.0939
    7.7987    7.7532    7.9461    8.3471    8.9169    9.5975
   10.2571   10.5226   10.0782    9.3613    9.9393    9.3618
    8.9412    8.8557    9.2029    9.1506    8.6591    8.3832
    8.3483    8.5356    8.9169    9.4570   10.1000   10.7057
   10.8988   10.5226    9.9393    9.8493    9.5320    9.3148
    9.2352    9.4034    9.6160    9.2247    9.0218    9.0286
    9.2283    9.5975   10.1000   10.6504   10.9582   10.7057
   10.2571    9.8493    9.2283    9.0286    9.0218    9.2247
    9.6160    9.4034    9.2352    9.3148    9.5320    9.8493
   10.2571   10.7057   10.9582   10.6504   10.1000    9.5975
    9.2283    8.5356    8.3483    8.3832    8.6591    9.1506
    9.2029    8.8557    8.9412    9.3618    9.9393   10.5226
   10.8988   10.7057   10.1000    9.4570    8.9169    8.5356
    7.9461    7.7532    7.7987    8.0939    8.5918    8.9396
    8.6005    8.4407    8.7431    9.3613   10.0782   10.5226
   10.2571    9.5975    8.9169    8.3471    7.9461    7.5322
    7.3413    7.4061    7.7305    8.2600    8.7629    8.6294
    8.2273    8.2241    8.6726    9.3613    9.9393    9.8493
    9.2283    8.5356    7.9461    7.5322    8.7269    8.3471
    8.1644    8.2048    8.4836    8.9617    8.9692    8.6294
    8.7937    9.3613   10.1357   10.8831   11.1171   10.6414
    9.9401    9.2724    8.7269    8.3471    7.9461    7.7532